# vtk DataFile Version 3.1
test file
ASCII
DATASET UNSTRUCTURED_GRID

POINTS 820 FLOAT
0.0 0.0 0
0.0 1.0 0
1.0 0.0 0
1.0 1.0 0
0.5 0.5 0
0.0 0.5 0
0.409890648822 0.217243330879 0
0.25 0.5 0
0.223236124363 0.589694566756 0
0.412990046857 0.391952483481 0
0.1875 0.4375 0
0.152532534122 0.441378058044 0
0.484229591747 0.375496954022 0
0.484470535277 0.438716751397 0
0.234375 0.453125 0
0.44212845854 0.465054357367 0
0.265625 0.46875 0
0.3798828125 0.50634765625 0
0.314475523222 0.512706511611 0
0.283989691112 0.497463595556 0
0.123465730016 0.463189671111 0
0.1015625 0.4921875 0
0.166892871373 0.411276162219 0
0.161527455118 0.378358754566 0
0.0 0.25 0
0.183259319049 0.504240680951 0
0.12043357654 0.42697597742 0
0.172883722889 0.470076352765 0
0.208156212291 0.478021893242 0
0.142445748799 0.497977948837 0
0.096764161182 0.566756269953 0
0.0436928751598 0.545182159468 0
0.0 0.625 0
0.117842422051 0.524466269174 0
0.161221617486 0.548866545612 0
0.0841284980093 0.521225211725 0
0.219670395729 0.549976052141 0
0.275449939319 0.55265038928 0
0.0 0.75 0
0.190706984701 0.535672978949 0
0.217306458166 0.512771932214 0
0.307308538477 0.432885082037 0
0.0 0.5625 0
0.0731462125768 0.548791825198 0
0.0128923755082 0.53125 0
0.0541322812991 0.499356470823 0
0.128545308694 0.556198755236 0
0.0922424936457 0.613791275745 0
0.0376644929132 0.59375 0
0.005868279276 0.59375 0
0.0273854868077 0.567816089261 0
0.0707481769611 0.587990093049 0
0.0493770768595 0.646189577544 0
0.0301082304816 0.622965535053 0
0.248426848567 0.533236564511 0
0.356957979639 0.569646876561 0
0.0751168417804 0.47770655688 0
0.5 0.0 0
0.216841286235 0.286813307206 0
0.105044323015 0.274432501733 0
0.254452050816 0.392950915328 0
0.473711657563 0.468624832278 0
0.219801497495 0.32676807293 0
0.326001735465 0.397208863126 0
0.440247573611 0.186044110951 0
0.41012899104 0.287183061484 0
0.455316540874 0.274999756466 0
0.295579422703 0.315248744888 0
0.221349072762 0.389692203295 0
0.23246853584 0.650063604145 0
0.156244189203 0.603162216899 0
0.121653757501 0.592883854771 0
0.00241404248549 0.6875 0
0.162308303055 0.672333236105 0
0.300903867903 0.538483002724 0
0.318194181101 0.599497435769 0
0.246781147631 0.567561498988 0
0.328500489246 0.630050206632 0
0.0 0.375 0
0.205770805207 0.620096720687 0
0.271252316978 0.660388392074 0
0.369779798186 0.616862222914 0
0.129520439013 0.679133014046 0
0.189886988517 0.578870358924 0
0.410305893675 0.764990552257 0
0.165855811853 0.639036146296 0
0.0160709782073 0.655675884422 0
0.255974290297 0.60224609368 0
0.10712632961 0.71587709733 0
0.441005030111 0.783383142964 0
0.0764260102921 0.328983344809 0
0.0920125051051 0.658043237225 0
0.128832195381 0.636108019995 0
0.5 1.0 0
0.257820015654 0.632839542662 0
0.349035965394 0.654909531126 0
0.213358667807 0.730116005061 0
0.4699861306 0.626272602931 0
0.403504624186 0.726733776015 0
0.310944854098 0.669016720737 0
0.347566617079 0.597545821066 0
0.404419108406 0.623330050337 0
0.353215864093 0.724674650399 0
0.761724256479 0.247530703085 0
0.381441533622 0.69474849456 0
0.0595547224151 0.710310530518 0
0.0371146258272 0.683548924713 0
0.0687514151733 0.679809916325 0
0.474756323112 0.533950117947 0
0.285012304537 0.353245008033 0
0.392724825169 0.546799507131 0
0.375633554355 0.644732301497 0
0.431690395636 0.716644010472 0
0.340532044855 0.690426810568 0
0.461176130535 0.702163614046 0
0.437516617045 0.639734980373 0
0.322705903826 0.565261813476 0
0.409498147962 0.519210213587 0
0.449741118475 0.674593671863 0
0.535484125749 0.692061684389 0
0.67958807093 0.376534649488 0
0.194405205321 0.662790182436 0
0.116125204605 0.308276259025 0
0.0701971280966 0.247782904403 0
0.134754605831 0.348991794643 0
0.122502661996 0.387048895063 0
0.0590135807047 0.403775941868 0
0.0989128232449 0.358453760975 0
0.0894155436113 0.39031653823 0
0.0598242176976 0.364541477558 0
0.03232957902 0.383599007792 0
0.010484847884 0.440221938979 0
0.0396769314984 0.464350583948 0
0.00878603533771 0.407041311073 0
0.042064180924 0.431738996652 0
0.0816914951257 0.436640174252 0
0.483751297282 0.25 0
0.397889089656 0.170424416557 0
0.0742744398148 0.292360137724 0
0.0154527345102 0.314190648609 0
0.0348310707012 0.275223680371 0
0.0482005521741 0.312266752717 0
0.0279438699096 0.347909399206 0
0.402245760919 0.58815916515 0
0.440272568568 0.509440438146 0
0.417282438218 0.690401833657 0
0.473925677571 0.656324696513 0
0.296274621424 0.63113889303 0
0.71231577201 0.26597140325 0
0.400636991434 0.658364464779 0
0.693981677339 0.908541251236 0
0.471591752795 0.801962076366 0
0.443409899153 0.6032680634 0
0.0 0.875 0
0.491005864286 0.701139799057 0
0.457516183686 0.731785666674 0
0.501789721597 0.611304753498 0
0.512767927007 0.86050584461 0
0.0342200864632 0.73682164989 0
0.0077097444557 0.719001165602 0
0.0685541967681 0.744271375719 0
0.439775031453 0.557744297178 0
0.477938212866 0.576239178201 0
0.286408498609 0.585575467654 0
0.50420342818 0.657705340204 0
0.154702673509 0.721403034208 0
0.471941245867 0.765392175075 0
0.489863665995 0.73351323716 0
0.511732244782 0.757411131907 0
0.180638428307 0.805633509969 0
0.473164349592 0.842034200546 0
0.151012197757 0.765295329449 0
0.782358994096 0.835670310713 0
0.274792083442 0.739716671537 0
0.303843586858 0.70997887723 0
0.23002332763 0.706034555494 0
0.317685787515 0.752561049166 0
0.220509481326 0.677580035502 0
0.190279054669 0.703505411255 0
0.267188718475 0.703229355007 0
0.249595203887 0.679947351518 0
0.227508072491 0.823186823002 0
0.44009768329 0.819344031383 0
0.25 1.0 0
0.106676030861 0.766969962842 0
0.280659008943 0.798167909765 0
0.184773650307 0.771547882042 0
0.362137971917 0.77261995787 0
0.229419392587 0.754604374133 0
0.155042462737 0.827258498735 0
0.128284541114 0.741283086381 0
0.485088457228 0.913757519382 0
0.13060658678 0.804330752253 0
0.261165143753 0.963665306201 0
0.184946291917 0.737212764638 0
0.514547220418 0.899783979698 0
0.479684474995 0.881603584692 0
0.246648908265 0.730529948192 0
0.450596503366 0.926285726206 0
0.216771607739 0.788569751453 0
0.0 0.8125 0
0.250457002041 0.781775743625 0
0.377572411491 0.744944966044 0
0.392740465636 0.809959729699 0
0.289772614818 0.767733090363 0
0.32476992739 0.796146309914 0
0.357889647861 0.807312052594 0
0.429721161634 0.95646636495 0
0.371119572796 0.863860165428 0
0.334488956441 0.913563959175 0
0.305549745434 0.859022312394 0
0.330982549919 0.832421060003 0
0.298180923515 0.826518696368 0
0.261569073268 0.851905979418 0
0.434075038971 0.863560223042 0
0.0908297276621 0.803464397577 0
0.278299739088 0.88797019 0
0.154170254967 0.860755257477 0
0.100870778623 0.856022991677 0
0.110214991273 0.826999384774 0
0.388365000382 0.782335419411 0
0.258780411344 0.82065554049 0
0.271949567435 0.927215798464 0
0.450150583794 0.88959169395 0
0.375 1.0 0
0.400869721946 0.844507164128 0
0.189116691264 0.841629187537 0
0.0316821249614 0.78125 0
0.0674065718814 0.856844492112 0
0.397606832477 0.911943681692 0
0.0860065994565 0.932524513155 0
0.3125 0.999322583539 0
0.125 1.0 0
0.0850274760622 0.892639461041 0
0.207191132701 0.873891926308 0
0.0 0.9375 0
0.301352186702 0.911836764322 0
0.124878468923 0.888146491129 0
0.23863575047 0.901688873867 0
0.237687071322 0.871078092409 0
0.315744131415 0.954456042205 0
0.0417678372941 0.913655970041 0
0.243286485488 0.930120947702 0
0.481898352354 0.958719458591 0
0.281141888476 0.989686673989 0
0.403473689715 0.878430351684 0
0.0663084846429 0.778904359846 0
0.051570335519 0.818089805024 0
0.029355556558 0.849780283244 0
0.0433899181055 0.880196951939 0
0.00985014041653 0.90625 0
0.364657984309 0.952135694622 0
0.504925745544 0.937759139916 0
0.454173473895 0.995485990771 0
0.343945103811 0.981660565669 0
0.366229348761 0.919822369011 0
0.397763805125 0.945673873802 0
0.414332371587 0.993281553625 0
0.45489900031 0.312859350433 0
0.524018923422 0.808840259345 0
0.502337928985 0.831176714337 0
0.143935623942 0.944052605607 0
0.19176912499 0.923951419306 0
0.1875 1.0 0
0.162236619753 0.898739031774 0
0.210163863148 0.902213049186 0
0.215997661535 0.939813329463 0
0.179365577433 0.961399241554 0
0.15625 0.986427909517 0
0.337172553732 0.87719183092 0
0.267738596552 0.425460306897 0
0.469408640798 0.500116589904 0
0.287121397275 0.38669470545 0
0.235010381751 0.419940688652 0
0.240902676103 0.360825178153 0
0.370875943907 0.373265543973 0
0.500172911289 0.78735495369 0
1.0 0.875 0
0.0625 1.0 0
0.0403402155995 0.959659784401 0
0.0578777262742 0.937179961731 0
0.03125 0.990909784401 0
0.118293746645 0.921592215043 0
0.13058527067 0.249616260331 0
0.0139944513652 0.15625 0
0.409011644868 0.258055627051 0
0.425025406225 0.313078553137 0
0.386664491886 0.4118172234 0
0.143347546742 0.179433020532 0
0.368860033516 0.281152893597 0
0.448140523042 0.381693033775 0
0.385305146434 0.312838947292 0
0.341997408509 0.453320098204 0
0.409817666028 0.338792446492 0
0.204996633866 0.358613284217 0
0.308499000931 0.225078380533 0
0.384710745295 0.468503508025 0
0.31563786021 0.472274547498 0
0.350186093831 0.484737328625 0
0.407158641343 0.437655810331 0
0.0 0.125 0
0.177116000725 0.337259788846 0
0.259597716607 0.331394853576 0
0.446008074738 0.424086720834 0
0.318231854757 0.348796186544 0
0.356035741318 0.424045157614 0
0.399259652222 0.36609718308 0
0.261283012838 0.286984761966 0
0.0 0.1875 0
0.38439428647 0.242446605154 0
0.460967237187 0.348203798261 0
0.741155799289 0.790888667218 0
0.775577465603 0.767938153933 0
0.785121354134 0.870749455704 0
0.564778537066 0.771920342959 0
0.109911154576 0.963715001898 0
0.09375 0.991715288191 0
0.327163999841 0.184658989393 0
0.247678911379 0.183385011754 0
0.353578033625 0.334193002274 0
0.585460932968 0.563000220824 0
0.181219757184 0.160590457164 0
0.0345121969371 0.190653236647 0
0.469354318132 0.167808673739 0
0.2916777023 0.082746884804 0
0.073332122596 0.208861373035 0
0.434278229024 0.24352099172 0
0.378887121908 0.211377331442 0
0.356704721078 0.188936972176 0
0.277856220471 0.250666140678 0
[...]
CELL_DATA 1587
SCALARS rho float 1
LOOKUP_TABLE default
0.533000198131
0.17097208567
0.0472755129762
0.120616890283
0.209470145468
0.50585132613
0.245707992767
0.23890126656
0.25
0.42013007404
0.136609703303
0.468314890651
0.431765058207
0.11659754456
0.225154223485
0.149627329009
0.131198638164
0.863614230164
0.168975135165
0.357196971117
0.304701024848
0.421435029973
0.183256466418
0.121031724449
0.500295768439
0.261837565749
0.329782005087
0.210931169536
0.266538230371
0.248935749997
0.135481085133
0.255912865517
0.299789694079
0.0322157443514
0.4068198479
0.122491326272
0.100048357266
0.101177806687
0.146619660678
0.132143946893
0.0783876837449
0.189513311727
0.329493769579
0.060651218156
0.299686570349
0.0869359465965
0.146265067235
0.210010404097
0.166196263579
0.23084373743
0.18809975141
0.0119921699192
0.0934246889741
0.0134259541053
0.35592103509
0.0110845886946
0.309102861179
0.140503262778
0.0865849439296
0.162308895111
0.099578360414
0.209227946198
0.148670371794
0.178395973745
0.00429745850272
0.269288826332
0.0784774890662
0.182330854348
0.036905843989
0.256885978506
0.0245470008903
0.197090920638
0.200088122982
0.202907329835
0.238577768911
0.396000223141
0.321647935732
0.135869782744
0.0669891952486
0.0625290882325
0.0167205931275
0.183967327642
0.114383963976
0.0500778281007
0.0711258736962
0.0846796239227
0.001956093092
0.180605196901
0.169117598402
0.0802195169066
0.0279902458252
0.0236394196656
0.0707892491554
0.0452660522273
0.104362398044
0.0517477059533
0.046173633452
0.0318520951828
0.22846790082
0.260805513226
0.7357720868
0.0185332155066
0.0277265984272
0.457535689518
0.345742397077
0.139594907648
0.38443740139
0.204938368155
0.47838661778
0.0889418849039
0.0984813224783
0.296190466229
0.406716072896
0.181213363236
0.059492931474
0.318877739804
0.0464606441831
0.402271060029
0.225335284806
0.295243071925
0.217641295484
0.449499435453
0.207278089419
0.293180088221
0.335778426028
0.382635042652
0.260122343818
0.463778080873
0.0778773585368
0.175956935421
0.103553470776
0.115654409126
0.135576714028
0.000804680828496
0.015393069563
0.228327073289
0.263054645512
0.286781166111
0.337978153725
0.358396480857
0.292823930833
0.152332103429
0.0277508201601
0.0597675462042
0.12865758991
0.0223415522691
0.281941462925
0.424614393012
0.232019785567
0.229895889241
0.453707714491
0.206297972696
0.358101464968
0.433170824332
0.24199718743
0.130449814044
0.415166971166
0.349105417609
0.331420429142
0.253846956158
0.070046999046
0.00616167356426
0.383976188575
0.324294205283
0.242254739027
0.461479177493
0.348615634837
0.411581872514
0.218961793917
0.0663003340937
0.114242815509
0.109553091243
0.140220312483
0.392081101849
0.239855037053
0.270022975792
0.222416127577
0.366318549643
0.0784117495978
0.364816439312
0.436716321463
0.114028967195
0.318440161937
0.491993093459
0.148843805192
0.311906654922
0.314323097257
0.417492486014
0.414190905628
0.488538917198
0.27955247011
0.468945392242
0.386757873359
0.392148222504
0.321550745082
0.76416498501
0.442733229076
0.455264329295
0.17418977341
0.0347930308993
0.034187560298
0.0338281844447
0.210881515456
0.0551402544719
0.416691589493
0.429298242318
0.376327846248
0.294083495258
0.453727804363
0.475369224131
0.422553516042
0.329488900669
0.450304215599
0.384821880271
0.387506189767
0.342410166848
0.383286291516
0.110550435238
0.480681886939
0.35097114023
0.413999334861
0.53247999481
0.429848582661
0.428476897175
0.333504288116
0.383277486983
0.632398957061
0.461512676258
0.621468611993
0.606724339289
0.275115651352
0.188677274127
0.191913981378
0.283308906901
0.133338476135
0.28022404501
0.150307662829
0.0971546793805
0.0971802050923
0.11872336369
0.0609230855848
0.0563086848593
0.103610342951
0.0827175281846
0.110783927382
0.0694177806712
0.0503891258074
0.0400325555424
0.0544775358494
0.0144655348066
0.00349494929467
0.0137052047859
0.0312697375992
0.0307419867688
0.0444691135496
0.00642362774058
0.0204450213819
0.0767068731473
0.108530267227
0.0654950894682
0.393042643728
0.44696388124
0.0919994185518
0.358964749212
0.0508568107919
0.0241518548692
0.00515091150342
0.059294328148
0.0524353542301
0.0167612684038
0.0547313659664
0.0328281191285
0.0200911496432
0.0305323855313
0.344346541175
0.144666470793
0.450127569952
0.456820819888
0.399786987758
0.394035261877
0.489711656679
0.0541096685488
0.364308749167
0.0448188027309
0.482705078784
0.194533098772
0.496005042021
0.150310732146
0.565730130854
0.655879739889
0.525626509678
0.46161430886
0.428448541535
0.26954652852
0.176642673365
0.0879380810554
0.294854780585
0.51492414773
0.451601307711
0.400742865342
0.491179052215
0.483238021688
0.566495972298
0.252400343039
0.0139766103063
0.0892967499628
0.00337459564706
0.0157461375895
0.393563218065
0.163553721061
0.464156522477
0.496090068528
0.300292433711
0.502312200618
0.460476141739
0.508843254565
0.764003424437
0.510231139405
0.116788379833
0.238292797309
0.230010301234
0.469518660072
0.666662160388
0.436275702491
0.494615467313
0.47310703185
0.450898155399
0.733115978519
0.199713111604
0.324337898958
0.383833278481
0.293992386477
0.618022903506
0.215794407496
0.332530498602
0.262876570061
0.317977800275
0.201731247105
0.298773819272
0.324915079489
0.251105352235
0.213603954542
0.23157889409
0.169096677078
0.233376004281
0.28312862985
0.234191073684
0.262678746447
0.493106717547
0.109370781768
0.454636699253
0.461617928559
0.0941188524131
0.264102344076
0.334864562274
0.208306036179
0.454072005785
0.20924145077
0.194061228784
0.2716739001
0.346424892149
0.37966503796
0.139809236326
0.130037848078
0.249285852368
0.414683796474
0.193197205201
0.491367531023
0.195710787986
0.0792114419102
0.229808989553
0.129431605132
0.795725668223
0.196194671464
0.211220350036
0.154085737615
0.172141425457
0.155429159275
0.502333207473
0.173577379994
0.0105607083205
0.251556159357
0.557838296153
0.232216000789
0.210321550211
0.250286794765
0.370743269735
0.247953651457
0.391820994819
0.263298807443
0.397127643117
0.412806150211
0.29840051705
0.310742776575
0.273629541934
0.36946420672
0.348265849056
0.449112357284
0.33788070839
0.3125
0.22882889498
0.425014148069
0.272843469376
0.0172059925702
0.10939989721
0.282952947534
0.258800398892
0.353330590192
0.311571072956
0.288433247406
0.301203286616
0.28180618593
0.130387051525
0.462307954519
0.461945181463
0.121752008288
0.0695695159413
0.0219674038082
0.183492692977
0.207938632152
0.0894837636056
0.0242484915545
0.218347355724
0.131954680263
0.0928307805926
0.37602512793
0.397137119898
0.245581828625
0.279206781267
0.314691495289
0.251290601131
0.471641172006
0.296348628517
0.361201029373
0.376626314201
0.411235956957
0.417077035329
0.199087730687
0.262961685664
0.026975297359
0.0844349421889
0.338297024055
0.0964426073879
0.281213962825
0.174932527436
0.126639834171
0.303128673297
0.317195091519
0.295067223741
0.341449073178
0.0567284104873
0.16610980299
0.378318584678
0.251540853627
0.0639893139579
0.0555149354575
0.0273693509645
0.425974832492
0.103592241203
0.432784639879
0.490637518375
0.223149336724
0.224128758838
0.259185294559
0.286017054548
0.472527770983
0.171690108789
0.47869060875
0.283867164408
0.0763039339309
0.379140596478
0.42923310416
0.390733364996
0.0805129040907
0.0699355450208
0.0494441546528
0.0498536483745
0.0467173488483
0.00978518551932
0.0652746553497
0.0316692986054
0.00328338013884
0.017746686174
0.355125429837
0.376217046065
0.501520474397
0.859379825066
0.443057824632
0.395698725571
0.343815034604
0.324063078408
0.345963619645
0.387199995454
0.408363933079
0.413939112782
0.432742335705
0.414501948494
0.450603222635
0.387551783959
0.568186962482
0.5194899617
0.482364677124
0.51990058218
0.147095114548
0.195205192478
0.243305047918
0.141488663447
0.159850400458
0.20470441299
0.17453266914
0.165980456228
0.230695366369
0.188056535964
0.205976883225
0.240149763592
0.174371859144
0.15625
0.0466619263893
0.324568283028
0.358173825096
0.39017682755
0.0230616014843
0.481388321303
0.371593217209
0.200638044029
0.456204886573
0.421273824424
0.129060427296
0.315506336918
0.240100630068
0.402134586676
0.360914631707
0.481235303317
0.515394402153
0.658421066474
0.838845982824
0.0238634051998
0.136698926173
0.0446967385332
0.0615576798768
0.096555918011
0.03125
0.0104166666667
0.13513627844
0.124046841721
0.113910005885
0.195957720582
0.675479625797
0.371192059037
0.457782022393
0.157799353891
0.0831719636423
0.481040099454
0.11212879941
0.43015697938
0.0520154947456
0.15864183036
0.300732253762
0.334839207225
0.419072613764
0.310451662499
0.362290971081
0.00119654463967
0.468769185456
0.269770681547
0.0814286850787
0.335113896101
0.27215338405
0.461749585634
0.464445783992
0.306810557072
0.326766492421
0.424819058927
0.288417517107
0.335940454183
0.23264193219
0.359780583484
0.287389510768
0.466770217127
0.422052254313
0.439641808752
0.196228383631
0.201661291083
0.236937168443
0.374571209918
0.550755070126
0.394375214328
0.299607860666
0.275528584209
0.214619818171
0.576115374631
0.335969893061
0.437938425236
0.328194367361
0.106669077374
0.221900269155
0.230537329789
0.453486290463
0.46056885986
0.435712881546
0.239096103538
0.94279050616
0.581285932479
0.556638478169
0.724843278735
0.516150250042
0.755882832686
0.54864047285
0.571553607927
0.109553718192
0.104737166893
0.09375
0.0655300718665
0.417726840905
0.395555620129
0.337386466748
0.493465721435
0.445080315803
0.280063147949
0.567625133174
0.651930384356
0.419116415228
0.0635455753117
0.246894075647
0.401098860054
0.28296463032
0.128106919951
0.3910573524
0.401305111284
0.377826977548
0.430060002205
0.354934496464
0.457759648339
0.425677692628
0.0126477892235
0.121805933033
0.156377003396
0.435948643707
0.199944312415
0.296788518857
0.382363990235
0.0161688827674
0.153668741508
0.202536361545
0.432311800166
0.0787267710904
0.3125
0.41600910403
0.369958026507
0.16897167497
0.313526909532
0.0936621387883
0.25089841595
0.253830034524
0.331341580445
0.150375300997
0.0166795615187
0.387421988285
0.25943441495
0.0473993510949
0.0510957521927
0.530958375422
0.551847938219
0.506626121311
0.763876128235
0.499717327812
0.533543803333
0.741169597856
0.546692862585
0.773417008037
0.644420028784
0.522531078603
0.59859853512
0.862837057792
0.649395449061
0.597427655682
0.589966354231
0.872042452165
0.613554342445
0.538261400338
0.565841547146
0.823202609678
0.865318606215
0.719294228416
0.565333560715
0.537950348253
0.505294764466
0.311492411241
0.542256739992
0.122211021183
0.363552821372
0.179589451957
0.431936769813
0.205672476885
0.0127006102854
0.624402365855
0.352323106515
0.374053230634
0.133880449318
0.222957301969
0.306772870472
0.0059598629146
0.361011010249
0.335923963404
0.343487130687
0.268718626517
0.174738215678
0.241724626053
0.11043237576
0.190088239918
0.321955126516
0.275335764012
0.0884690450646
0.238803784898
0.168570475865
0.14286985716
0.309803936389
0.33971217475
0.103174404937
0.184030387979
0.0801446720051
0.00466481712174
0.0241746481375
0.0552057334491
0.460221179597
0.353179468526
0.318252870829
0.286913072868
0.776111794231
0.327418557305
0.437222764889
0.183001135093
0.286194084061
0.277056896243
0.143757525614
0.0918232796489
0.0836213622369
0.360728171376
0.268705028979
0.172673090455
0.227091419553
0.323644403986
0.249936512567
0.382900282029
0.432868804922
0.1517748203
0.408666655274
0.159305428191
0.272906725037
0.366243262714
0.260957518981
0.349014411655
0.125568933063
0.167489498066
0.138124338742
0.173728109843
0.388098056997
0.484341423009
0.15351520062
0.253863585418
0.22496314619
0.351923384734
0.251117924183
0.0179746073116
0.642410515694
0.189050702907
0.232173824578
0.36985291652
0.281888102849
0.402103354805
0.35882080859
0.396731630781
0.473556593009
0.0327264231027
0.217469007006
0.162461122994
0.233487113403
0.980782481043
0.0702981185562
0.329165024938
0.305333634853
0.099152172262
0.935622076653
0.316090581215
0.375583845442
0.0494647852229
0.252261324262
0.288533129572
0.358199572813
0.115579085737
0.0104166666667
0.109945393309
0.0286314518895
0.037211707599
0.0750601870746
0.0434117484249
0.03125
0.31886965549
0.289750870786
0.270447122004
0.269211585242
0.26162605093
0.300160871889
0.284614504881
0.300932259774
0.347780033851
0.819676880464
0.325855227765
0.341646768456
0.455656948347
0.392412044846
0.430116957038
0.462396383871
0.404666415109
0.423419665894
0.136861421792
0.0803682841774
0.992282161316
0.09375
0.135841061137
0.128382302808
0.1875
0.236467054887
0.155678642067
0.187930013333
0.402493940943
0.439107657496
0.386831852381
0.41471446972
0.483229717204
0.469699940634
0.426751383118
0.447584716451
0.470038422264
0.778879527449
0.195142641465
0.167520491467
0.146562220963
0.170212881927
0.21506244014
0.211889899405
0.373960160596
0.342978909195
0.61188009051
0.754192954524
0.631340190097
0.777485393562
0.636395615261
0.646505552128
0.624935841907
0.759084486239
0.498489173501
0.6875
0.231970935096
0.21875
0.828834049004
0.933253901748
0.482410027489
0.920798857146
0.510286798118
0.909217539816
0.472633163677
0.683727621234
0.724519887837
0.543191935386
0.617879376878
0.696006924429
0.720994802447
0.627855335599
0.500902070818
0.545131101174
0.739449643609
0.606711360054
0.751365756792
0.47926075329
0.491878668834
0.531719378859
0.47446176024
0.512470425614
0.564596032944
0.726947534872
0.801736814215
0.710615539707
0.511602265003
0.77076536278
0.566696020963
0.532650115139
0.564464296881
0.636219592092
0.491052095671
0.924695280905
0.816431656725
0.540526123836
0.895357336745
0.525713561538
0.545496954601
0.502927620115
0.469701513264
0.492885329192
0.495539040329
0.501744931689
0.583476020325
0.569084778398
0.741311326134
0.577317948351
0.524308569047
0.534262320631
0.592855001815
0.499262758472
0.609242701861
0.802073587469
0.679223546606
0.825535393527
0.667798288744
0.713049142555
0.813890757103
0.580393621333
0.775735716192
0.504589977312
0.605135611235
0.74355350905
0.702006044181
0.612159913661
0.578947289381
0.575880191182
0.730515973338
0.645823269516
0.725755093038
0.495142713133
0.551760717738
0.528210655582
0.632667887628
0.744279517898
0.951817120222
0.848333319344
0.624547838178
0.581351623285
0.598033008923
0.684595654483
0.535787108611
0.679062065651
0.643058942102
0.593060625445
0.600784432271
0.570481668736
0.507218231424
0.522882412043
0.548868697659
0.530591035473
0.889842282919
0.730765237363
0.525331371695
0.608400014394
0.539418761034
0.63945454376
0.721927677444
0.680572945048
0.675725948415
0.696001298047
0.698773118014
0.817952754168
0.578562302629
0.695808286562
0.549512128
0.862737154476
0.713636547621
0.701876203718
0.927551639882
0.715268456583
0.740926514829
0.890185433613
0.71059290695
0.838852522024
0.718545698425
0.65812354636
0.758217293781
0.655633245734
0.878381014029
0.733190166294
0.699890128686
0.804874459321
0.575130472115
0.895102940611
0.552270397729
0.784955758585
0.641955425718
0.78584432955
0.543852642055
0.508325462059
0.790505934791
0.598275734501
0.509905647054
0.522971814777
0.759604480896
0.857862549813
0.874478038171
0.900975731632
0.976509926626
0.895925769608
0.793655808092
0.799431696475
0.93707157207
0.826723242477
0.97468981299
0.802574596812
0.660206563331
0.706204890247
0.68542817684
0.650964010578
0.922604544249
0.570985468218
0.610097975823
0.643223496567
0.824929440947
0.93536030914
0.834533326981
0.641639265125
0.84114161117
0.802893322582
0.953126538684
0.834069019565
0.939112575912
0.775135934428
0.912702617453
0.839822183979
0.826287609426
0.764851610603
0.707658504793
0.713314457607
0.723015210249
0.843559727865
0.790728563141
0.72382864008
0.838232622641
0.639494024834
0.966084362973
0.678991280977
0.880177034154
0.938180605194
0.957551531665
0.506936679647
0.847711533829
0.608360693182
0.824380048807
0.781957432233
0.774834047669
0.66612746442
0.718960286735
0.746520792928
0.6932748445
0.820454257045
0.689336661103
0.769207879292
0.922779100408
0.810168473575
0.894837813376
0.69183149315
0.860226230093
0.666217189838
0.804546185484
0.979590574656
0.681656856455
0.715559398893
0.928642962204
0.640293409962
0.742830399896
0.632562270022
0.598916392135
0.838328551824
0.732447093213
0.786683741603
0.681143094744
0.806968994921
0.788587964824
0.751213266913
0.573845158725
0.809134054914
0.769741917995
0.543477177897
0.823874851996
0.773876919553
0.81935174537
0.567341978246
0.574573336595
0.890559552707
0.755154210928
0.748656134113
0.708856308111
0.595272664113
0.786842765596
0.599228332978
0.704661629553
0.682640736848
0.689932410988
0.862385499468
0.911736756695
0.986585429269
0.797634279825
0.847264783857
0.874906601246
0.580980949664
0.556269652719
0.6606058658
0.619938708328
0.710855975166
0.532557273964
0.794760473836
0.869237896169
0.577228709239
0.537718424609
0.838292457438
0.600522890003
0.731038269103
0.571015237974
0.865943574187
0.602477745544
0.763477225939
0.532814528978
0.60239236637
0.629729023919
0.748964739639
0.67647776305
0.688265905581
0.931650026174
0.857233945082
0.557662585193
0.929990189235
0.720264481452
0.837791450799
0.887742127587
0.702490104155
0.855733193031
0.895778125772
0.611635949204
0.722843831997
0.885486908217
0.52492148163
0.946866875406
0.746992636441
0.78886101884
0.638830289472
0.757021053488
0.913189577631
0.708953489061
0.526734306893
0.774975016809
0.859991945906
0.900874285331
0.891892915589
0.827509672448
0.766610146578
0.607507278114
0.610050432487
0.817694219645
0.873993155749
0.768891776308
0.842800794181
0.995000549439
0.764978286197
0.750864093434
0.57579643044
0.699251463195
0.678293902419
0.875726705704
0.905763624954
0.663069845403
0.491284159123
0.566607178203
0.57813415199
0.731274006281
0.63369596572
0.491203844613
0.566490350711
0.541662754181
0.632963065859
0.780703543364
0.58191832603
0.520845929155
0.5691626133
0.600112460847
0.763317618813
0.662981858425
0.902191256902
0.805001226757
0.553059678957
0.831831577304
0.546536637593
0.792132144778
0.829709243803
0.800660036517
0.813924537049
0.784221400584
0.853392889323
0.757888897556
0.983307557805
0.643760845519
0.745206867184
0.982818307018
0.673223540673
0.680436743718
0.657400303002
0.871612805625
0.663637221368
0.651912914561
0.969369319459
0.608787377502
0.694544896908
0.614960604553
0.518173058872
0.668629732603
0.65738595316
0.67755917301
0.860311354049
0.924555500696
0.781764840935
0.533241727039
0.795309928582
0.804411516558
0.805807738549
0.547796983767
0.87146572308
0.488651112976
0.723573863293
0.581977455955
0.491390577302
0.532162832299
0.629779961712
0.664883731226
0.698891677262
0.531375762535
0.503126861105
0.864111677407
0.945692232484
0.86507378736
0.604565624443
0.977029205044
0.785839109581
0.717280336745
0.515701091053
0.520950590506
0.53125
0.563940592458
0.632133712552
0.59667040124
0.827132955127
0.768162953972
0.832105483525
0.855717479027
0.590474695963
0.912340225529
0.739411094583
0.696206313226
0.71875
0.620315278109
0.65410056078
0.70049508168
0.72857633827
0.561441561023
0.598530737549
0.59607491881
0.6002983835
0.634775707532
0.578728851211
0.59375
0.611096067598
0.629005803088
0.584585087669
0.564821219393
0.54962084249
0.53354822912
0.547711741246
0.912031213807
0.922573615833
0.76870365663
0.799944043319
0.814262336436
0.645018832784
0.733351156025
0.667024801081
0.935905852941
0.500319201374
0.962567858833
0.691040108431
0.707607780645
0.794357581498
0.591000040785
0.911067270495
0.768842949766
0.599828110436
0.851097544217
0.798760101102
0.76410426587
0.722344147427
0.992562013439
0.785220688298
0.843016678735
0.977841935038
0.911633121544
0.749600018395
0.640113742607
0.612340929914
0.545269061258
0.622878270652
0.513257672814
0.952310537842
0.822812551592
0.801775870776
0.800680273119
0.959866408651
0.672243058598
0.627983885622
0.854241893304
0.614729436231
0.768219407381
0.995371638883
0.899071300845
0.553005591971
0.826305293103
0.735861134446
0.806532894979
0.623345054079
0.98581991315
0.891311834694
0.586329861709
0.563980590717
0.530737338561
0.559984051486
0.970432502911
0.522158596895
0.888317755161
0.863613351614
0.606544166342
0.744703198019
0.508877453996
0.536871377696