# vtk DataFile Version 3.1
test file
ASCII
DATASET UNSTRUCTURED_GRID

POINTS 5 FLOAT
0.0 0.0 0
0.0 1.0 0
1.0 0.0 0
1.0 1.0 0
0.5 0.5 0

CELLS 4 16
3 1 0 4
3 4 2 3
3 2 4 0
3 4 3 1

CELL_TYPES 4
5 5 5 5

CELL_DATA 4
SCALARS density float 1
LOOKUP_TABLE default
0.0833333333333
0.416666666667
0.0833333333333
0.416666666667
SCALARS pressure float 1
LOOKUP_TABLE default
0.5
1.16666666667
0.5
1.16666666667
VECTORS velocity float
-0.0667619679622 -0.219896067537 0
0.0277920938588 -0.219896067537 0
-0.0667619679622 0.0997453573507 0
0.0277920938588 -0.539537492425 0
